<?xml version="1.0" encoding="utf-8"?>

<!-- generated on 2024-02-07 17:48:21 by Eclipse SUMO sumo Version 1.19.0
-->

<configuration xmlns:xsi="http://www.w3.org/2001/XMLSchema-instance" xsi:noNamespaceSchemaLocation="http://sumo.sf.net/xsd/sumoConfiguration.xsd">

    <input>
        <net-file value="test.net.xml"/>
        <route-files value="50to50.trips.xml"/>
        <additional-files value="map.poly.xml,additional.add.vtype.xml"/>
    </input>

    <time>
        <begin value="0"/>
        <end value="1000"/>
        <step-length value="0.1"/>
    </time>

 <output>
        <summary-output value="summary.xml"/>
        <stop-output value="stops.xml"/>
        <tripinfo-output value ="value.xml"/>
        <emission-output value="emissions.xml"/>
    </output>

    <report>
        <collision.action value = "warn"/>
    </report>

    <gui_only>
        <start value="true"/>
    </gui_only>


 
</configuration>
